644
Lattice="18.640158229433656 0.0 0.0 0.0 18.640158229433656 0.0 0.0 0.0 18.640158229433656" Properties=species:S:1:pos:R:3:momenta:R:3:forces:R:3:charge:R:1 energy=-2282.563028030401 stress="0.005057670256998976 2.1075597601816493e-05 0.0016821229080753815 2.1075597601816493e-05 0.003206618260134554 -0.0007296158434812326 0.0016821229080753815 -0.0007296158434812326 0.002860745148053267" free_energy=-2282.563028030401 pbc="T T T"
O        2.09541537      18.44355508       2.67760066       0.15378574       0.35986542      -0.63779011       0.17794972      -0.19131243       0.07242726      -1.29141045
H        2.43846581      18.21134225       3.58016521       0.18946490      -0.00302238      -0.04888411      -0.69962373      -0.00005827       0.98776111       0.64439201
H        2.97106263      18.55405017       2.25796870      -0.07459944       0.02962978      -0.06540776       0.29207323       0.34117476      -1.25938756       0.59503412
O       17.93259373       0.12765381       2.14171709      -0.41048346      -0.26999603      -0.50687858      -0.66172143       0.31275534      -0.25324306      -1.25719452
H       17.66751493       0.59146254       1.30567806      -0.04684653      -0.23588322      -0.11570203      -0.18490396      -0.15940156       0.33713747       0.65762907
H        0.18326867      18.41097666       2.06404483      -0.07549190       0.08860196      -0.02619178       0.70483936      -0.11148081       0.01311484       0.65054011
O       16.40337921      16.63034979       5.90217650       1.12059711       0.11184571       0.40705369      -0.01694377      -0.30739909      -1.31893064      -1.26603603
H       16.57962286      17.19899773       6.65616342       0.26902261       0.00655156       0.11160567       0.02297327       0.54191306       1.12722245       0.62173784
H       15.54026154      16.14957073       5.96344320      -0.19868780       0.09758032       0.06096665       0.66683165      -0.05390589       0.19829535       0.63702768
O       14.86067792      16.47388384      13.19552840       0.61820232       0.88836018       0.10312983       0.18720361       0.06418918      -0.91776064      -1.24078357
H       14.59795970      17.08810782      13.91888519       0.07282098      -0.12695376       0.02246650       0.28063071       0.50521549       0.59974978       0.63024080
H       14.21221090      15.75926128      13.35061698       0.18962742       0.12314234       0.05076047      -0.37157055      -0.90925873       0.17518820       0.61361206
O       18.53491903       1.20300684      12.23972693       0.43367502       0.43736899      -0.15111057       1.89221190      -0.06436283       0.35046222      -1.26092386
H        0.46753246       0.54143963      11.69915468      -0.03450677      -0.06202838      -0.02685765      -0.71398150       0.15254677       0.50218726       0.64543194
H        0.60583534       1.50213876      12.95381555      -0.04054481      -0.02282974       0.04717213      -0.97966180      -0.26697276      -0.92286413       0.64876664
O       17.18659938      15.92634398      18.08890986      -0.91366355      -1.56302891       0.36521255       0.14653786       0.68963878      -0.98765218      -1.28340590
H       17.93295352      16.33740958      18.55473956      -0.13428564      -0.02733892      -0.01638597       0.27801241       0.01406972       0.44818829       0.56186336
H       17.30185080      16.27248730      17.12181881       0.11396360      -0.29455734       0.03819878      -0.56215223      -0.06264715       0.80898686       0.71626389
O        4.30984665       0.43904032       1.23422986      -0.31434397      -0.40627459      -1.08431640       1.10989179      -1.71241398      -0.38246807      -1.31560421
H        4.59460592      18.17118050       0.77777644       0.08517530      -0.05873031       0.25418163      -0.98608816       1.37136450       0.04215544       0.63556373
H        4.20308097       1.09887860       0.51042700       0.08515822       0.04485820      -0.16457735      -0.32562307       0.13190817      -0.42100893       0.63372278
O       16.07805569      18.53662760       3.92958195      -0.63924697      -1.12894245      -0.31635475       2.30850019      -0.46001414      -1.32330710      -1.28923345
H       16.13039506      17.80183017       4.61151385       0.08706077      -0.19668135      -0.24534042       0.07446587       0.28483606      -0.29964094       0.64757323
H       16.95893565      18.39341044       3.23251002      -0.23058086      -0.10132836      -0.05782924      -2.15421726       0.63858361       1.41686072       0.69760782
O       14.92497534       8.10528828       0.08610627       0.47864032      -0.79186562      -0.40883409       0.57519133      -0.48536769       1.39810260      -1.26543212
H       15.53435665       7.99536785       0.90634304       0.04216555      -0.37521931      -0.05555598      -0.72528810       0.29900163      -0.92936295       0.64011985
H       14.37172163       7.24988014       0.05872590      -0.04708415       0.08433987      -0.07209117       0.13772594       0.22985691      -0.38262653       0.68326306
O       16.21084132       1.36167799       9.81892938      -1.16588921      -0.58913753       0.13009014      -0.72178166       0.24861207       0.48256021      -1.29431307
H       16.82224476       2.14783113       9.98148505      -0.11106258       0.00213009      -0.03787793       0.14136884      -0.32984758      -0.39777085       0.66106415
H       15.68497587       1.31952907      10.68573665       0.09687210      -0.07626666       0.00685397       0.21371762      -0.16668770      -0.69030160       0.61988175
O       17.57905530      17.87600491       8.12725486      -0.25274028      -1.13687630       0.77461996      -0.89305298       0.92431664       1.32116027      -1.20978606
H       17.08302678      18.43695046       8.81992691       0.18562275       0.20381276       0.17176942       0.44044491      -0.87325572      -0.72119868       0.61959863
H       18.24677825      18.53331868       7.84533730       0.11071752       0.02041764      -0.13230366       0.49627771      -0.01221376      -0.51180596       0.61156964
O       18.20044716       3.05272607      10.14910570      -0.20299039      -0.57240858      -0.93356744       0.65475455      -0.14856197       0.55786699      -1.22344494
H       18.58326394       2.35782335      10.78309525       0.09418280       0.15469743      -0.09340753      -0.40347210       0.66883041      -0.15509524       0.65039134
H        0.22170888       3.13511215       9.42745126       0.07103411      -0.21180471       0.07186612       0.08402026      -0.11429247      -0.12126191       0.59596419
O        2.51373357       5.95156492       1.03975365      -1.43883619      -0.09706566      -0.29244919       2.06020210      -0.22382244      -0.45109255      -1.33253670
H        1.96271476       5.14084189       0.92684367       0.14712034       0.06305362       0.02986388      -0.44820258      -0.30285742       0.29842074       0.63430023
H        3.50924963       5.63091310       0.79160905      -0.10110799      -0.00624393       0.08055211      -1.73011768       0.27736836       0.17960225       0.69648165
O       16.70110568       8.34894270       4.85819974      -0.54417637      -0.19093604      -0.13089262       0.01331258       1.11346964       1.77343303      -1.26975930
H       16.09248092       9.15121155       4.78393537       0.21224808      -0.08138358       0.04804375       0.00191174      -0.37761203       0.02899096       0.63732773
H       16.73799227       7.96820785       3.97090958       0.09485729       0.43809580      -0.02833571       0.07897227      -0.31786378      -1.46021789       0.65610170
O       17.38350663       4.43610674       4.91044691      -0.51540569      -0.26590952       0.17048109       0.47501936      -2.35228183      -0.20765838      -1.30633354
H       17.04250857       3.49019419       5.22223844      -0.20345458      -0.29103881       0.15476463       0.33636534       0.74947094      -0.52703234       0.65858972
H       16.94877610       5.04167056       5.51963632      -0.28361457       0.12690108       0.06197802      -0.87877941       1.26398527       0.89924655       0.63443774
O       17.13303918      10.45821240       9.41324535      -0.81197713       0.17104873       0.84875567       0.05400017      -0.18755327      -0.05237528      -1.23961329
H       17.16042468       9.47890235       9.51357692       0.37396926      -0.26492229      -0.06085559       0.22719775       0.01925725      -0.00445691       0.62368280
H       17.48018008      10.66022546       8.49410715      -0.19281154      -0.24244166      -0.27993330       0.06037679      -0.04899657       0.50188577       0.69140148
O       17.84836586       7.65931535       9.69713376       0.68706952       0.72452296      -0.14705104       0.93214174      -0.27445996       0.96637454      -1.26988947
H       18.14750177       7.16687753      10.51888260      -0.13706418      -0.15280249      -0.22946066      -0.50258419       0.40453787      -0.90485743       0.58554977
H       16.97818303       7.23913051       9.43787233       0.20116933      -0.22399634      -0.31359456      -0.31145661       0.00488203      -0.09924320       0.66519672
O        8.28219399       8.09257367      18.02720418      -1.05149328      -0.30739564       0.30481420      -0.93243257       0.35414429       0.95813570      -1.27364671
H        7.01281679       7.07158302      17.74535774      -0.01856733      -0.12430419       0.15428470      -0.09410227      -0.40406355      -0.12355180       0.70632917
H        8.92634628       7.80609124      17.34690281       0.04463745      -0.22117666      -0.06744643       0.27878802       0.51646965      -0.41481970       0.62185991
O       18.50084727      10.64062514      13.36415320       0.32368229       1.52068824       0.40830415      -0.77951232      -1.37295826       0.36290567      -1.28153050
H       18.12064898       9.68375548      13.19120507      -0.31115959      -0.00055713       0.27027992       0.59092116       1.52412497       0.35929956       0.63072705
H        0.11849877      11.02718576      12.49184360       0.00610300       0.19843256      -0.10250804       0.40918513      -0.45522214      -0.81117547       0.64666063
O       14.90249556      10.48357720       4.69862324      -0.71660307      -1.30227213      -0.82492858       0.05690975      -0.41035941      -0.07573991      -1.28644419
H       15.31092058      11.01719596       5.44977734      -0.11213440       0.03637651       0.07627581      -0.14216813       0.31572920      -0.08871352       0.62533301
H       14.95268844      11.02956525       3.84776473       0.03817379      -0.09670899       0.14867136      -0.11798645       0.00560137       0.26575312       0.62761575
O        0.63781956       9.12712336       5.83442489       0.36500900      -0.84841186       0.36386017      -1.65681974       0.47742361      -0.92408100      -1.30926704
H        0.80400873       8.43137456       6.51570076       0.11823014      -0.08254164      -0.08492004       0.48680180      -0.30504309       0.74096762       0.67580587
H       18.35092833       8.93438173       5.44998006       0.10343797      -0.01219895      -0.48582828       0.87556407      -0.04741394       0.24854009       0.61001796
O        1.23401635      13.85865584      10.41793192       0.05373428      -0.00790010      -0.20344155      -1.21833209       0.07865361      -1.06444421      -1.36507201
H        0.93142368      12.91931089      10.62005079      -0.12896109       0.06635772       0.18206524      -0.07467683      -0.12187345       0.01480555       0.63390553
H        0.66653740      14.24981729       9.64194667       0.07591142       0.13076960       0.00380604       0.65310121      -0.23518152       0.88403576       0.65582871
O        0.58278512      11.21198364      10.86711129       0.26073297      -0.04095770       0.31884966       0.03919104       0.18289914      -0.63941945      -1.32587385
H       18.38908057      10.94018797      10.33117839      -0.00786881       0.23640143       0.22421850       0.37447101       0.12558403       0.18402337       0.65108413
H        1.35157435      10.65955973      10.44897999      -0.15911415      -0.04051587       0.13377474      -0.71613715       0.02206564       0.76804257       0.67118520
O       16.72983209      12.53097392      13.90119657       0.23718533       0.76333427       0.16971329      -0.79206757       1.18543226       0.68024841      -1.30724597
H       16.20016014      12.37929326      13.06653248       0.22754605       0.01921799      -0.37213780       0.03845938      -0.16411893      -0.38326582       0.63514900
H       17.52516724      11.99445550      13.76834851      -0.16997098      -0.09272054       0.03027902       0.74456570      -1.11898032      -0.12015898       0.60082293
O        0.35666183       9.62936840       1.74342740       0.11250686      -0.71067316      -0.18331992       0.16228617       0.32451903       1.51413642      -1.30230403
H        0.86097078       9.14962629       1.03337693       0.11350430       0.10719968       0.07918188       0.38189145      -0.04349695      -0.05363283       0.65719378
H        1.03741159       9.72939477       2.52761211       0.21064136      -0.01031903       0.18100001      -0.98371476      -0.24917833      -1.12532568       0.66075444
O        2.12838443       9.93796105       3.88089067       0.61941911       1.47497262       0.18069923      -0.17621166      -0.19133245      -0.24303675      -1.32812047
H        1.63340318       9.55259465       4.66098977      -0.20700490      -0.02634414      -0.27192556      -0.27262077       0.07829511       0.28987514       0.71184766
H        2.87468415       9.31484109       3.73864161      -0.06912489      -0.30629930       0.06459473       0.52110144      -0.20258597      -0.28585243       0.63429064
O       18.34181599      11.34028591       7.22938869      -0.39823913       0.96389624      -0.11382957       3.24322220       0.95682699       0.50616741      -1.26832414
H        0.08862834      10.58460837       6.73394134      -0.17671008      -0.02960263       0.12371491      -0.33825010      -1.03516675      -0.73541857       0.64326060
H        0.66024271      11.68541060       7.51046261      -0.01347134      -0.12882517       0.23567682      -1.94462056      -0.08850778      -0.00941082       0.62922943
O        0.10198009      14.96312089       5.87369915      -0.08346255      -0.32110510       1.00207760       0.98901375       0.51694084       2.16531906      -1.24103856
H        0.28229974      14.36778364       5.16809763      -0.03880244      -0.05613119       0.15347735       0.06446948      -1.44544464      -1.79894265       0.61832500
H       18.00576210      15.50932617       5.61207013       0.02855874       0.04332416       0.10276137      -1.29669991       0.94521133      -0.48473210       0.61661375
O        1.16405741      15.44429935      12.68556649      -0.27366601       0.28243046       0.90473138      -1.58462467      -0.24080073       0.13257927      -1.28103638
H        0.18384549      15.30931259      13.05991808      -0.06712070      -0.02518366       0.07774486       1.27903109       0.31050028      -0.69499610       0.63775748
H        1.11909612      15.03061079      11.76558004      -0.11301105      -0.08869759       0.16971506       0.12698645      -0.17493018       0.83343797       0.60093379
O        1.76817967      10.63143606      15.19654972       0.06605902       0.51962029      -1.31621237      -0.02965273       0.07177555      -0.61013652      -1.28144217
H        1.80245881      11.32040142      15.88665696       0.04133224       0.01576704       0.03061167      -0.11258355       0.40803977       0.59567469       0.60629243
H        1.00954116      10.88515235      14.58106944      -0.22826236      -0.16791099      -0.18935953       0.38741947      -0.55994297       0.02381957       0.64807224
O        0.97338624      15.94206764       1.90074836      -0.24278843       0.95009813      -0.06177775      -1.25586555      -0.52231869       1.05842551      -1.23707998
H        1.23220418      15.61997929       1.03125199      -0.18288259      -0.23320923       0.13427295       0.72590222       0.09051351      -0.96324616       0.62266076
H        1.47617672      16.74358751       2.11196902      -0.30080115       0.17750341       0.24514679       0.49380875       0.39782684       0.02435915       0.62871146
O       16.62733418       1.97464880       5.60994779       0.70379549       0.44819288       0.00743536       0.54478463       0.74887114       0.12973510      -1.31797731
H       16.52789563       1.39902378       4.80807115      -0.29915733      -0.02523406      -0.01556474      -0.57614562      -0.50493638       0.26408975       0.63134956
H       15.87330566       1.85634782       6.27058839      -0.08805741       0.10146970       0.08835405       0.43283532      -0.27642807      -0.48208500       0.66806859
O       14.87760423      14.54653418       5.55307163       0.77824753       0.58147151       0.27591603      -0.48515131       0.12916729      -0.16707472      -1.22813368
H       14.01197679      14.71991947       5.97309965      -0.23133646      -0.06262794      -0.17154470       0.15348380      -0.44616878      -0.01103299       0.55374664
H       15.30085010      13.78267747       6.01783754       0.12270951       0.10093578      -0.06320574      -0.10081406      -0.26368634       0.13482948       0.65411133
O       16.41397817      13.98565436      10.03761244       1.08703717       0.64504010      -0.37708140      -0.81054789       0.36830639       0.01449566      -1.23770952
H       15.64412863      14.54634789       9.75741914      -0.06200415       0.03666731       0.10069640       0.35107747      -0.18063316      -0.01813258       0.61059988
H       17.15736803      14.25416721       9.45837946      -0.13649155      -0.02311510       0.01931003       0.21047679       0.19693816      -0.22906113       0.67361468
O        1.30699230      17.81093960      11.13884016      -0.77088485      -0.07497957       0.92057960      -0.86279831       0.19025527       1.10180214      -1.29702187
H        1.89556987      17.58068391      10.39047848      -0.10575325       0.14583454       0.07004887       0.24837769      -0.35674184      -0.07468102       0.65245295
H        1.12469275      17.07394888      11.80336551       0.10967019       0.16213160       0.17860258       0.59798294       0.33398338      -1.00813337       0.64729917
O        2.53443207      14.48691532      15.00931001       0.65984788      -0.29393694       0.78622164       0.68711027       1.91125101      -1.62831322      -1.23070717
H        2.19916812      13.78727867      15.54245558      -0.15307394       0.16492624       0.07487423      -1.00649353      -1.65067741       1.14485642       0.62185800
H        2.01235605      14.61914841      14.16805256      -0.08350647      -0.16575240      -0.12924597       0.17251948      -0.15144622       0.42471433       0.64176762
O        6.11442396       1.63657750      16.19217466       0.61052778       0.27413858       0.50100840       0.28259840      -0.76578009       0.52688136      -1.31529355
H        4.62947116       2.16899951      17.21903183       0.01641504       0.10022860       0.06066299       1.56107803      -0.04208115      -0.70664105       0.59459531
H        8.15259867       1.38473045      13.13165009      -0.09506068       0.16303580       0.19982123      -0.00987021       0.74989970       0.00666026       0.61066902
O        2.61178648      18.35959904       5.21194961       0.93640991       0.63050245      -0.33068655      -1.45304526       1.07792049      -1.52222876      -1.33949339
H        2.58938992      17.49956580       5.61442386      -0.03286269      -0.26427166      -0.09358333       0.10043308      -2.03882851       1.20348544       0.61491227
H        3.41247726       0.19788745       5.48031983       0.30019134       0.27554848      -0.16983550       1.32264336       0.77876086       0.58612114       0.65657336
O        7.03048718      16.72976012       4.68497606       0.44851426       0.11165086       0.10446126       0.53349777      -0.04918654       0.25661180      -1.25582576
H        7.23716822      17.69741616       4.88218583      -0.04406530      -0.08004999      -0.14450076      -0.43026061      -0.20604053      -0.18680232       0.64355469
H        7.53312665      16.57010957       3.84752520      -0.23831402      -0.16904373      -0.13994247      -0.09396555       0.29814122       0.07385596       0.62071532
O       18.50616509      15.19282909       8.54740006       0.84203575       0.19643087      -0.45830006      -0.72893347       0.49885494      -0.89620127      -1.30196619
H       18.43608737      14.99431872       7.55032203      -0.06200682      -0.23539996       0.28715875       0.36581205      -0.17364519       0.88673877       0.66383374
H       18.22256720      16.16281193       8.57973880      -0.05273149       0.04706381       0.20425364       0.29893846      -0.57628463       0.21053966       0.62661970
O        1.70476096      12.74226833      17.10539563       0.53921854      -0.63900948       0.34577700       1.76731568      -0.19445855      -0.88343964      -1.29930353
H        2.40895489      12.56590648      17.82662247      -0.07280649       0.04070668       0.05160513      -1.40893597       0.37288300       0.17475504       0.65042031
H        0.82389407      12.97645167      17.42807624      -0.09674795      -0.10915963       0.11127281      -0.74324009      -0.04844249       0.80819049       0.60305351
O        1.45659602      17.48067920      16.10857465      -0.16205773       0.49587039       0.53188092      -0.56335405       1.27861803       0.65989190      -1.25975072
H        1.49327169      18.52106507      16.34048227       0.01203867       0.11152869       0.09159685      -0.00417055      -1.19477699      -0.25609425       0.66800153
H        2.02333424      17.45542478      15.30413501       0.08328291       0.00465675      -0.08834463       0.50046338      -0.25838567      -0.40954810       0.59895551
O        0.78822984       3.92189212       1.38029475      -0.22480035       1.11301107      -0.63515184      -0.52966763      -1.13717909      -2.70406439      -1.29073584
H        0.58075082       3.48613822       0.41606393      -0.17856921       0.08085646       0.01670145       0.27926482       1.11336637       2.07107860       0.64508498
H        1.19838963       3.18097739       1.93661996      -0.06155709      -0.00094380      -0.08681410       0.07840940       0.52161406      -0.03995659       0.66370004
O        1.98970109      15.71140071      18.06698546       0.80824871      -0.65021905       0.43969859      -0.14328806       1.29641780      -0.95997913      -1.26967168
H        2.07569541      14.84973087      17.62910560       0.04459985       0.04120891      -0.09255652       0.06183763      -0.43789819      -0.25435196       0.60654259
H        1.76209757      16.38286023      17.29755451      -0.07032290      -0.14362206      -0.15083320       0.05219025      -0.66662936       0.56634390       0.67348850
O        1.96333969       2.81711134       8.24507664       1.09471430       1.54519168       0.80790534       0.31188622       0.37566327       0.41660141      -1.26546025
H        2.46205627       3.57372676       7.83443666       0.29010661       0.13022142       0.05948795      -0.42252297      -0.41737714       0.09548600       0.61203611
H        1.60846099       2.18604727       7.55060490       0.03725648       0.02389074      -0.13564651       0.10882970       0.13396277      -0.10891600       0.66881347
O        0.79072428       1.05445434       6.61093124       0.04465802       0.40695272       0.01957468       1.36558533      -0.68808670       1.50291683      -1.25930440
H        0.05365123       1.31605898       6.08040058       0.07362703      -0.00256786      -0.08677387      -1.34210290       0.44989183      -1.11393273       0.57285786
H        1.44221963       0.47130191       6.10561839       0.21819606      -0.21157036       0.12990126      -0.32218042       0.35871917      -0.28106881       0.69166827
O        3.78636173       4.60576297      11.46964192      -0.42076903       0.26044273      -0.22727695      -1.46020321      -0.35242759      -0.11823577      -1.24158692
H        4.08617924       5.11479315      10.68392480      -0.37978311      -0.20816000      -0.14031919       0.52267053       0.34893682      -0.01603783       0.65015101
H        4.50178557       4.60064065      12.14628102      -0.03782547      -0.30419246       0.23629462       0.65093096       0.09760169      -0.18225779       0.67319578
O        1.80791339       2.22022721      13.83676866       0.20443969       0.35587801       1.18721315       0.02922825       1.90312053       1.34043347      -1.24763584
H        1.92716278       2.26436992      14.86474378      -0.26249737      -0.33603267       0.13368448      -0.56542941      -0.94114808      -1.39777901       0.67002088
H        5.69068907       3.77909052      13.36432215      -0.07825770      -0.32596817      -0.06573660       0.40119879      -0.24880969       0.07989864       0.64139605
O        4.66514869       4.77304085       0.16459560       0.36406719      -0.16865729      -0.01057569       1.57479769       1.18227945      -0.16824527      -1.29771376
H        5.29066534       5.43925051      18.23436078       0.02292487       0.03422927      -0.02710355      -0.69876458      -1.00628889       1.07080100       0.71680069
H        5.20518314       4.58748235       0.98344446      -0.03881074       0.12461097      -0.26290421      -0.47596887       0.13782622      -0.54652683       0.60094464
O        4.63145275       1.07503275       6.07023735       0.93213785      -0.39445856      -0.21662772       0.46309307      -0.29663025       1.65383311      -1.29333746
H        4.66648060       2.09082508       6.05001659       0.08393223       0.01228905      -0.01475874      -0.16173126      -0.07477577      -0.23052408       0.66090399
H        4.80357619       0.78316556       7.06901423      -0.08967480      -0.10292569      -0.29330468       0.07840551       0.41140041      -1.63101316       0.63150269
O        1.43384620       4.32211125       5.03894564       0.11589783       0.43440703       0.17360039       0.25618537      -1.27967522       0.83974050      -1.32847619
H        0.47061508       4.36739394       5.26810528       0.00686967      -0.03072769      -0.01154697      -0.27181992       0.09082336      -0.45707025       0.62648541
H        1.66262549       5.10006587       4.49471651       0.19383195       0.08150063      -0.22712014       0.27213242       0.78611050      -0.63416068       0.65452135
O        2.71565242       5.54550232       7.11657258       1.70402564      -0.84713389       0.47559280      -1.72129791      -0.56376588       0.98641482      -1.32257509
H        3.61982343       5.88969891       7.03410310      -0.06587560      -0.02087301       0.02377876       0.85028765      -0.03861143      -0.73936445       0.64833426
H        2.37847216       4.91851798       6.41714134       0.34597164       0.16166625       0.26055593       0.59724307       0.63015280      -0.32235792       0.66416198
O        1.37162120       7.73980786       7.93496498       0.05469578      -0.09375828       0.15024135      -0.10582548      -0.74893272      -0.11383502      -1.25351346
H        0.55387912       7.61498390       8.49543330       0.03435172       0.09091546      -0.10696768       0.18710694      -0.09374747      -0.01659116       0.62248057
H        1.70785988       6.81497895       7.63588640       0.01361609       0.16845161      -0.04748318       0.05154246       0.67949958       0.32433829       0.66863608
O        4.91368701       2.38586299      14.01251881      -0.34036755      -0.04536578       0.26853172       0.71333755       0.38032059       0.11736049      -1.27074504
H        5.31593663       2.12592382      14.93623911       0.27068905      -0.23873702      -0.14363749      -0.69696902      -0.09016627      -0.90816523       0.67515373
H        3.94189713       2.47343316      13.94029913      -0.21924431       0.17075283      -0.05137640      -0.09350436      -0.21928639       0.62271591       0.60652733
O        5.81824200       6.65991147      14.71315940       0.63543743      -0.01471676      -0.63893334      -1.66427980       0.65462818       0.34209317      -1.26832628
H        5.89483400       7.63976907      14.35383735      -0.11049893       0.09187630      -0.24567446       0.41873694      -1.20045018       0.08344858       0.67430460
H        4.81873208       6.52800485      14.83829572      -0.04773782       0.35181062      -0.14129150       0.87819588       0.15537703      -0.19391361       0.57912427
O       16.78719513       7.78625134       2.33018231       0.06628863      -1.14493808      -0.06229979       0.23335759       0.50483031      -1.18174863      -1.27928519
H       16.93656450       6.85447265       2.03652280       0.18670323      -0.33625742       0.35738736       0.23713430      -0.40782348       0.33958878       0.60430974
H       17.53107785       8.35762303       1.95164535      -0.02365248       0.07649684       0.30073594      -0.24069159      -0.32365326       0.51028535       0.62479472
O        7.14763882      12.62173847       8.05339249      -0.07430434       0.46139581       1.22389139       2.26485897      -1.49708523      -1.34540389      -1.31207728
H        7.78402273      12.57723991       7.19430844       0.13065942      -0.07157415       0.09467298      -1.21408387       0.60496141       0.99897021       0.66835642