316
Lattice="15.7372 0.0 0.0 0.0 15.7372 0.0 0.0 0.0 15.7372" Properties=species:S:1:pos:R:3:momenta:R:3:forces:R:3:charge:R:1 energy=-2326.041212614834 stress="0.012845326995798594 0.0027785521646018366 0.0008510294081758266 0.0027785521646018366 0.013778907972718992 -0.003878248976333717 0.0008510294081758266 -0.003878248976333717 0.004904279123868706" free_energy=-2326.041212614834 pbc="T T T"
Zr      15.66554574       0.03697162       0.09628323      -0.64172800      -2.15197935       0.40274395      -0.29201311       0.40381484      -1.38701130       2.54063010
Zr       2.33040648       2.69034541      15.70578513      -2.58462372       0.09185214       1.14842131      -0.47167429      -0.27752242      -1.15615554       2.60490847
Zr       2.36498504      15.60133750       2.60752627      -0.96222166       2.26998053      -1.14536980       0.32123769      -0.99546787       0.66155137       2.61011505
Y       15.62828685       2.41542383       2.81054632      -1.75121452       1.16437035      -0.61889346      -0.85843834       2.00829194      -2.77723844       2.15915561
O        1.32745426       1.25930644       1.33113030      -1.09274759       0.38290887       0.30673024       1.61129458       0.35947415      -0.83537565      -1.31222987
O        1.29635511       3.91128567       1.39129505       0.14795150      -0.18584646      -0.04532709       0.76335870       0.32206184       0.36526807      -1.38290346
O        3.71637404      14.72427524       1.16068891       2.07865834       2.03157057      -0.29312872      -0.68020797       0.13267526      -0.94017990      -1.24508405
O       14.51997858      14.58615925      14.47521417       1.41173650      -0.66477718      -0.68262476      -0.80656442      -0.49742412       0.50053686      -1.25255632
O        1.19365220       1.08895747       3.79796297      -0.45666881       0.16314219       2.50194532      -0.29723173      -1.79296272       2.02725727      -1.35287118
O        1.21156978       3.48185719       4.15541278      -0.28874051      -0.52143463      -0.88898004       0.08376452       1.88764888       0.32960589      -1.24686551
O        3.82005211       1.33688343       3.57468001       1.03441910       1.37458706      -0.38419425      -0.17367295       0.60750444      -0.72771962      -1.28395164
O        3.94272887       4.01506292       3.73580385      -0.11237287      -1.05298880      -1.49424559       0.35932589       0.03794805      -0.12852989      -1.29564226
Zr       5.15892525      15.64572975      15.34953275       0.81715265       0.59339033      -1.96236493       0.46705624       0.10795094       1.15012454       2.54035211
Zr       7.77400522       2.74405461       0.27228547      -2.82251698       2.86006787       0.55995581       0.31277600      -1.75410298      -3.74731120       2.48914003
Zr       7.64479607      15.56446666       2.32707254      -4.45795179       1.28670194       3.63274062      -0.45657848      -1.02906496      -0.05158987       2.56879687
Zr       5.49861324       2.55983869       2.72701559       0.64917413       0.82530042      -0.61997223      -2.79584312      -1.01811945       0.59319701       2.56708908
O        6.15057227       1.24997408       1.04000891      -0.13510357      -0.33597486       1.20060277       0.64462681       0.78002383       0.73314156      -1.29297054
O        6.59463325       3.77706278       1.53497184       0.95243990      -0.50936533      -0.37515585      -0.66137881       0.99132717       1.20033365      -1.26745951
O        8.86429277       1.42344037       1.64961932      -2.13096609      -1.42421318      -1.05573282      -0.27816769      -0.56348691       0.60166444      -1.34270430
O        9.07882561       3.95977555       0.98511564       0.29665442       0.95406428      -0.69562831       0.63550363       0.77586328       1.55519929      -1.23572588
O        6.52174771       0.98658520       3.80036990      -0.73580750      -0.74861798      -2.22701139       0.88377977       1.59025856      -0.61787056      -1.28960764
O        6.46978866       3.68769696       4.23926349      -0.13423304       0.97905849      -0.19240151      -1.56157294       1.09290325      -2.24348196      -1.26708412
O       11.40270332       1.01580169       3.83445514       1.84385411      -0.30719572       0.74499115      -1.09637840       1.69171979      -1.15222804      -1.31028819
O        9.07686428       3.53671419       3.77899538       1.36013890      -0.37534307      -0.45668924      -0.07960156      -0.30935032       0.32336158      -1.28102350
Y       10.38941136       0.17013253      15.59175491      -0.75946159       0.43958641      -1.62120853       0.21737756      -1.43160551      -0.27092014       2.18052149
Zr      12.99370977       2.82696955      15.61833404      -0.92022015       4.08256838       1.87806611      -0.31484638      -0.36166417       0.15560169       2.48454213
Zr      12.86941658       0.00356198       2.44329234      -4.23751310      -4.25492495       0.99407111       1.66806065      -0.45906142      -0.31594168       2.53155017
Zr      10.37452432       2.69988325       2.44775597       1.94856406      -2.87098160      -3.15842944       2.67957745       1.10800085      -1.69406147       2.58011866
O       11.69459626       1.55033344       1.12708118       0.52313135      -0.16905707      -0.90304617      -0.10597034      -0.81983851       0.35938766      -1.33592474
O       11.56337231       4.09625376       1.25718454      -2.33232469      -0.91997768       2.18300756      -1.38020063       0.76767529       0.64012898      -1.23183334
O       13.78624959      14.09246359       1.34787815      -1.46901881      -0.19622278      -1.44617365       1.58041601      -0.12587525      -0.12864546      -1.19143462
O       13.89386259       3.73209556       1.34581813      -0.23609213       0.76725389       0.88883608       2.12832778      -0.06807527       0.87387112      -1.28078651
O       11.80014938       3.66862327       3.74576517       0.49259943      -0.48996377      -0.33808250      -0.49360881      -0.84538641       1.43137558      -1.29354250
O       14.33140586       4.07837845       3.99858649      -0.93517401       0.74142296       0.90883287      -0.21806227      -0.22189772      -1.28118526      -1.26334321
O       14.10461043       1.29451253       3.78807025       2.13186457       0.58591608      -0.16423958      -0.78992954       0.42569157       1.64947372      -1.30678272
O       14.13358498       3.73314583       6.42491540       1.22791928       0.46450092       1.75279537       0.89699572      -0.04194141      -0.46096147      -1.32299662
Y        0.11515311       5.18331718       0.06159259      -0.05596441      -4.24327249       4.76203872      -1.82659172       0.45995068      -0.40383819       2.14921331
Zr       2.54637867       7.75758360      15.60661169       2.79456825      -0.24435774       4.25078345       0.06792273       0.79036536       1.57937828       2.49332523
Zr       2.57122628       5.22212796       2.65755604      -5.34343481       0.30125488       2.02903723      -0.64482162       0.39678276      -0.44497290       2.54636765
Y       15.52483368       7.87117470       2.51060473      -3.72631979      -0.03180428      -2.27791590       0.87011146      -0.99467453       0.38678332       2.17921615
O        1.36327775       6.66120418       1.19115815       1.00623329       0.04311263      -1.19232718       0.98807789       0.08982441      -0.00596382      -1.37022829
O        3.73938451       8.95076666       1.30276622       0.09926360       0.67766844      -0.10582658       0.05054297       0.97693485       0.25616573      -1.31902957
O        3.92993922       6.31585577       1.49588243       0.66196826      -1.73108727       0.45440384       0.64633113      -0.50909045       0.74574760      -1.23936677
O        6.52334375       8.93039600       1.64759545      -0.13869881       2.77890975      -0.37748874      -0.71034764      -0.07493463      -1.02117553      -1.32691574
O        1.27920923       6.17123694       3.90739198       0.09191353      -1.40424552      -2.07138468      -0.93224837       0.21608572       0.15148498      -1.30528283
O        1.27303667       9.13512688       4.23440972      -1.13311668      -0.49060036      -1.21512196       0.42761011      -0.52446896      -0.43917423      -1.28983462
O        3.84885301       6.70410187       4.08949067       0.31864123       0.13759413       0.76834257      -0.21242629      -1.46067561       0.13598122      -1.26607192
O        3.79479585       9.14428982       4.01156889       1.37121469       1.30366767      -0.06730122       0.86698392       0.99154573      -2.55427156      -1.26566386
Zr       5.10574374       5.01872944      15.73660600       0.87288785      -3.10472967       0.32103639      -0.64867606       0.98113671       0.10414728       2.53426123
Zr       7.83639168       7.91957158       0.09353059      -3.06514613       1.86226666      -2.40039516      -1.31853546      -0.20939991      -0.20511019       2.55110669
Zr       7.72224555       5.31182986       2.49560745       2.38481359      -1.17037191      -1.99042823       0.93348811       0.71130028       0.29998228       2.54943442
Zr       5.09727122       7.88410836       2.57746648       0.59015862      -1.23555056      -0.61486857      -0.61888930      -0.36395084       1.05923926       2.55192113
O        6.71905276       6.28612207       1.04452066      -0.12992668       1.37364344       0.61533692      -0.54318196       0.49235438      -0.97796037      -1.27545369
O       11.83273981      14.35214363      14.37531640       1.07361815      -0.44691318      -1.92886230       0.07779371      -0.67720575      -0.11173501      -1.32755125
O        9.26103312       6.52153208       1.37911742      -3.30669016      -0.02694280       1.56579301      -1.02980340      -0.01022428       0.90747102      -1.28742242
O        8.93513684       9.21858922       1.02048166       1.56565756       1.30606129       0.46815021       1.90071404       0.06162046      -0.15309900      -1.28646457
O        6.21828750       6.33594459       3.60417103      -0.30672259       0.09212966      -0.86350539       0.02329425      -0.84072098       0.06995584      -1.29549265
O        6.42973400       8.99109009       4.24932998      -0.36265954      -0.91739802      -0.71142301      -0.27724739       0.24776948       0.32291670      -1.31024909
O        8.63764065       6.27056609       4.08058623       0.78588041      -0.19842601       1.12649265       1.14874791      -0.61982706       0.67114597      -1.21557236
O        9.15097698       8.99390220       3.65015026      -0.60034067      -1.16899465       1.16649840       0.60339832      -0.33959648      -0.05161015      -1.36897612
Zr      10.48837503       5.44133259      15.59872454      -0.21659287      -3.59531760      -3.44604947       0.32517828      -0.89594527       1.02513162       2.55486202
Zr      13.16668643       7.75289721      15.27948092       1.12444792      -4.03668898      -0.99834329      -0.39616045       1.62393326       1.32713401       2.54751968
Zr      13.00771966       5.17567911       2.64212538      -0.31393154      -0.91758255      -2.16642991       0.08042570      -0.56604264      -1.40298032       2.58264589
Zr      10.42484656       7.83771569       2.43228305      -2.39320241       0.74384268      -0.52651134       1.02235752       0.18571831       0.37965911       2.60333991
O       11.80223541       6.77256499       0.89844445      -1.99504212      -0.31339827       0.64697425       0.02906952       0.21508936      -0.08704168      -1.29606366
O       11.52087602       9.50683666       1.48861945       1.58097784       0.36710610      -1.58013328       0.08211592      -1.24729073       2.09727099      -1.29760540
O       14.47060151       6.31104816       1.41398311       1.38510554      -0.68277125       0.32420025      -1.36362529      -0.10240525       0.13695911      -1.35899353
O       14.33700515       8.99981684       1.07945640      -1.42974750      -1.24173471      -0.37928084      -1.10124359       0.58167322      -0.88600561      -1.37172163
O       11.09067347       5.98373587       3.39646299       1.93798490       1.68838212       0.14447997       0.49359449       1.15486928       0.45779065      -1.29400492
O       11.97636745       8.75444485       3.97798201       0.04816017       1.44567891       0.87472688      -1.70330702      -0.03484578       0.05412761      -1.32506299
O       13.88500054       6.57506244       4.17693129       1.43411835       0.10063230      -0.01914877       1.67748625      -0.91040544      -1.46165901      -1.28068995
O       14.38175748       9.36150457       3.77469047       1.14098102       1.19809447      -0.41309128       0.33201504       0.34284906      -0.40604464      -1.28214896
Zr      15.68275046      10.34226613       0.07054766       0.81592431      -2.61977015      -0.03949238      -1.39087003       0.13456207      -0.64923570       2.58440876
Zr       2.62989776      13.31955967      15.72004548       2.80401922       1.43160716       3.40407215      -0.22697124      -1.10318925      -0.08169710       2.57270765
Zr       2.66115353      10.39637560       2.65162624       1.01654195      -0.40099808      -2.82774806       0.66761440      -0.61681761       0.79812036       2.56737065
Zr      15.64253836      12.88446583       2.32000804       0.80779704       1.40782789      -0.24675138      -0.98148035       1.61824440       0.85699781       2.56770086
O        1.13188589       9.31724818       1.28145649       0.57159713       0.16603031      -0.41447930       1.18407141       0.71476939       1.11709590      -1.31469846
O        0.84198339      14.50807993       1.43942149       0.48653954      -0.35630703       0.67801417       1.22265546       0.43044753       0.17080142      -1.25905848
O        3.80764610      12.01314539       1.75551997      -0.71940563       0.39241225      -1.73749799      -0.43624334      -1.12433956      -0.99508651      -1.30580842
O        4.13401715      14.48416008       3.73482146       0.10033353      -0.00925408       0.85240845       0.10148364      -0.73844530      -0.72034789      -1.26696861
O        1.19401262      11.61255804       3.33735034       0.52594041      -0.20272973       1.17157664       0.23962525      -0.20863989       0.64719863      -1.23662257
O        1.38848493      14.29031087       3.89582273       0.92428443       0.01677901      -1.34234162       0.40171542      -0.71464138      -0.35260743      -1.24378514
O        3.84934115      11.70811168       4.27168334       0.07765683      -1.33725742       0.29675092      -1.49423380       0.64650182      -0.28860385      -1.22298288
O        6.68367149      14.24702503       3.94537889      -0.07585344      -0.67209019       0.17939731      -0.08137086       0.17922983      -0.39691511      -1.28466630
Y        5.20302544      10.53607006      15.69661914       3.18144829       0.03619250      -0.18939188      -0.09712669      -0.34268491       0.37053541       2.18694329
Zr       7.76845785      13.22473069      15.49696412       3.40289589       3.16609301       0.19451328       0.00796227      -0.66359834       0.80998592       2.51829195
Y        7.84223550      10.56255390       2.68960779       4.40710883       2.06234984      -1.50146946      -0.12137334      -1.10816654      -2.38311778       2.14138937
Zr       5.30089919      13.13629571       2.49964240       5.88045481       0.63891674      -1.58122582      -0.30652084       0.27532439       1.40775166       2.53546405
O        6.73780533      11.79679615       0.98835279       1.21758131       0.67694470      -1.39457015      -0.64864483       0.74023447       0.75559481      -1.37229407
O        6.56471478      14.46837204      14.39721492      -0.46148674      -0.26293948      -1.05025061      -0.33204430      -1.12646902      -0.29707330      -1.24276567
O        9.40457330      11.85714029       1.31383519       0.69319224      -0.36579775       0.80388881      -0.40605127      -1.36993734      -0.18140236      -1.22077644
O        8.87263525      14.26721216       1.10509443      -1.70447513      -1.45249760       0.09818872      -0.22734076       1.46889039      -0.14124555      -1.28444624
O        6.41050598      11.72923944       3.75465216      -0.13635992      -2.36859622       0.00331636      -0.99324341       0.28356859      -0.15146003      -1.35041630
O        6.28822311      14.43588523       1.18739300       1.31267472       0.08978500       1.62360529       0.06647367      -0.16701996       0.84177242      -1.28461611
O        9.09532814      12.05806474       3.86480008       0.66343655      -1.66042902       0.99240105       0.59904966      -0.75103900       0.73441780      -1.34834743
O        9.15642993      14.69813660       3.52817807      -1.33010849       0.76841109       1.18179669       0.43754691       0.75627092       0.98782889      -1.24355233
Zr      10.53835402      10.45979449       0.07821543      -2.55438523      -0.14715668       0.95853066      -0.51682818       1.66257424      -0.51277838       2.59862757
Zr      13.22679042      13.02072604      15.45672711      -1.17572731       1.17985224      -4.31979176      -0.97305260       0.79640886       1.49868278       2.43238902
Zr      13.16172795      10.46550108       2.55513447       0.70093918      -1.47137365      -0.50189921      -0.99970775      -0.28658867      -0.45860834       2.56235647
Zr      10.43860346      13.03472924       2.43704721      -0.02036892       3.11765312       2.87773374       0.75657755       0.44742141      -1.15255106       2.48247385
O       11.87939423      11.96518136       0.91348061       1.21359399       0.66907048      -1.43503703      -0.66170654      -0.04868537       0.34514011      -1.21708632
O       11.48213316      14.57353761       1.53934267      -0.29076882       0.55144516       1.13255858      -1.53464839       0.58752360       0.72151900      -1.22648275
O       14.29505830      11.63444398       1.30459812      -0.47434065      -0.20512015       0.82241573       1.34336101      -1.04544270      -0.17082810      -1.29607797
O       14.50218225      14.61726941       3.79051634      -0.74144771      -0.49956026       0.02416141      -0.90971880      -1.42584794      -0.04949233      -1.22735965
O       11.86110923      11.71125211       3.61654418      -0.95214517       1.64844176      -1.79089411      -0.60225152       0.19412178      -0.00214705      -1.35893631
O       11.75287250      14.41385383       4.63025338      -1.15004552       1.17438746      -1.08031455       0.35827943      -1.97258598      -0.55275744      -1.27510810
O       14.48289084      11.89751344       3.96290325      -2.12137406      -0.00775922       1.61186459      -0.02177035      -0.11989182      -0.71533837      -1.25578213
O       11.78494469      11.73938782      14.14020469      -0.16127339       0.72399205       0.10278057      -1.22499594       0.86121506       0.04180648      -1.23757160
Zr      15.51689260      15.65637211       5.08295194      -0.01298788      -1.13017978      -2.82145204       0.15197721       0.21038073      -0.12039812       2.47082376
Zr       2.57327334       2.34618995       4.96702121      -2.78973701      -0.63804950      -0.99044973       0.57554094       0.51724415       0.32586009       2.48457217
Zr       2.36881607      15.67786660       7.63043569      -1.46116624       0.09692171       0.38090161       1.54850158      -1.04398464      -0.06086817       2.52090287
Y       15.67158284       2.62863821       7.58394982      -0.47079962      -2.45122133      -1.14127610      -0.22359630       0.55154653       0.67617209       2.15931559
O        1.36880126       1.35218387       6.40704193       1.84104010      -3.32877635      -0.80642880      -0.70511255       0.04979674      -0.13371838      -1.32710934
O        1.11407676       4.37369929       6.65711811       1.95209368       1.06224095      -1.17340385      -1.08506053       0.63664883      -0.25193470      -1.29397237
O        3.54312526      14.38091966       6.23267922       2.29875561       2.79836962       0.74394869      -0.26631414      -0.07164094       0.10959778      -1.23879015
O        3.55882383       3.77033705       6.35845025       1.00408763       0.07925487      -1.27834735       1.26033254       0.27449127      -0.18496628      -1.26860118
O        2.73614936       1.29507168       8.94819142       0.88276688      -0.38906126      -1.78662190      -0.07252035       0.93374919       0.85367505      -1.20540500
O        1.31290371       3.72963613       9.13003742       0.66098710      -0.81304534       1.40551482      -0.67072252       0.72268864       1.23024131      -1.31725979
O        3.97372315       1.18061066       6.31915852       0.76407736       0.71831597       0.60425151       0.04226014      -0.34689927       0.05532984      -1.27656221
O        3.86677813       3.77714878       9.10874267      -0.34816634      -0.03910344      -0.39973355       0.80139539       1.05480270      -0.68153922      -1.29082334
Zr       5.21019461      15.47964639       5.24390431       5.32758816      -2.69551742      -0.37509252      -1.92751795       1.56009494      -2.00797392       2.50598001
Zr       7.69620118       2.67763339       5.33425758       1.96620024      -2.81247897       3.63203892       0.44506961      -1.75795731       2.13450619       2.52948213
Y        7.64054437      15.45154406       7.78765382      -1.70073680       1.69406305      -4.93058039      -0.01963633       2.20279658       0.79465957       2.17545652
Zr       5.01738150       2.52910550       7.47191342      -1.41541651       0.75712181       2.56637805      -0.10014070      -1.20629592       1.55764495       2.54577923
O        6.52032039       1.35914890       6.48864454      -0.29429180      -1.04558066      -0.25158758      -0.02372958       0.60313335      -1.14844626      -1.29694009
O        6.35639570       3.92842855       6.66659318       0.10339574      -2.81243053       1.70371659       0.18829457       0.81608732       0.15461654      -1.29816806
O        9.04031999       1.09033513       6.24549665       1.66599045       0.09923221      -0.44457517       0.16654191       0.73956128      -0.81401311      -1.36432385
O        8.94688583       3.90686840       6.39407979      -0.13088070      -1.29713248       0.26053112      -0.02262739      -0.80580646      -0.75111472      -1.30814683
O        5.75486564       1.24822881       8.88610402      -1.45689405       0.64870150      -0.24720894      -0.76656254      -0.12733133      -0.23651476      -1.29020262
O        6.72347913       4.09122541       9.32052157       1.68323565       0.84322908       0.31382717      -1.57054595       0.46454753       0.59180205      -1.28610647
O        9.07756254       1.16136079       9.32047497      -0.34435667      -0.39201118      -0.08410927      -1.05498494       0.18052510      -1.12095536      -1.36426926
O        9.09020129       3.87700801       8.91310496       0.86110777       0.48661007       0.43944077       0.48442493       1.11133562       0.49085217      -1.35858810
Zr      10.25045240      15.54719982       5.04738098       2.45731639       3.52286403       1.99600765       0.32463980       1.14688100       1.13471465       2.63069248
Zr      12.86253513       2.28789094       5.12852695      -1.37141411       1.59779324       4.10474104       0.69945208      -0.69946310       0.57812769       2.55633593
Zr      13.06908492       0.00864403       8.00602136      -0.96882232      -0.37870098      -4.15428774       0.16838938       0.60313974      -0.55780716       2.62540293
Y       10.32452184       2.49708668       7.68952586      -0.69339587       3.77335932      -0.41982176      -0.02385525      -2.00469033       0.90614776       2.19866800
O       11.72048864       0.92566280       6.38582107      -0.64671434       0.35834887       1.24948900      -0.30173776      -0.56925560       1.07794958      -1.30835700
O       11.83562746       6.13442204       6.07066488       0.22956890      -0.67276272       0.34329388      -1.00068532      -0.69781937      -0.89524671      -1.25725472
O       14.17978046       1.00785804       6.43459512      -0.12493318      -0.40571480       0.78424938       1.43847902       0.31856970      -0.24603145      -1.33919311
O       11.74705967       3.48848802       6.38445528      -1.85346712       1.77314969      -2.59089303      -1.80673464       2.29797632       0.69196603      -1.35378921
O       11.75246800       1.18025207       9.42250632      -2.53998568      -0.16236518      -0.67918128       0.99402052       0.10500086      -0.99481650      -1.30144382
O       14.29537114       3.99383847       9.10320775       0.56788932       0.99578043      -0.46396740      -0.04586195       1.14483092      -1.24402234      -1.30319154
O       14.62672949       1.41236755       9.09722783      -0.44880303      -0.66049116       1.83275514      -1.05710667      -1.34391428       0.70905654      -1.33549440
O       14.58368506       6.73026291       9.79042765       1.30029922      -0.54684463      -1.42031379      -1.14897160       0.18517711      -1.62940873      -1.23877645
Zr      15.42081644       5.16027553       5.24091296       1.14265430       0.55595016      -1.92957315       1.32002617       0.22315687       0.67100553       2.56631064
Zr       2.51426022       7.78556593       5.22316782       0.18389238       3.36721587       3.29633438       0.43712571      -0.22615107      -0.34994863       2.54940414
Zr       2.55468318       5.21556010       7.80916703       2.44608277      -4.14399186       0.05437698      -1.23471392      -1.23218174       0.21788414       2.55262399
Zr      15.55546583       7.66525007       7.95035501       4.70797875      -0.63672842      -7.75358262      -0.14257281      -0.84461285      -0.50977442       2.59942317
O        1.15520561       7.01184671       6.48049817      -1.75754322      -0.48862139       0.71595573      -0.46115693       0.31317893       0.84367343      -1.22175133
O        3.40227630       9.15772771       6.43651160      -0.97259543      -0.74874973      -1.39724244       0.41580039       0.80456331       1.46628679      -1.30609512
O        3.71144197       6.40292713       6.62769171       0.62205262      -0.00553681       0.40554609       1.46676363       0.19441427       0.12258901      -1.26663041
O        6.20839764       9.32803592       6.87415043      -1.35193276       0.53191621      -0.84316741      -1.04954987      -0.59629639      -0.49201108      -1.22847438
O        1.29598622       6.44768322       9.10482416       0.66837812      -0.43035587       0.24137838       0.28118822      -1.09169974      -0.94868844      -1.36892974
O        0.97778199       9.02453545       8.90513135       0.32693601       1.16951308       0.27777520       0.56322265       1.74327578       0.20216627      -1.33451796
O        4.02521247       6.63117364       9.37062176       0.90296510      -0.37629349       0.54292920       0.58707922      -1.04360935      -0.35455666      -1.36872935
O        3.82343380       9.34754446       9.09238294       0.26357987      -0.17248007      -1.88151066       0.02184842      -0.72922151      -0.14837480      -1.33212245
Zr       4.97875085       5.24147093       5.14570268       1.11973991       4.43470777       1.26782516      -0.38351219       0.56329811      -0.17534746       2.56859994
Zr       7.73468338       7.68802523       5.13910611       0.46595327       2.19031936       0.46007289      -1.03706607       0.55747255      -0.90124820       2.46259212
Zr       7.77928639       5.15296819       7.77889874      -0.58938696      -2.04534427       0.47565941      -0.59934048      -0.29602094       0.70072405       2.55900002
Zr       5.25889807       7.83373112       7.80036752       5.84744894       1.01747415       1.22860375      -1.15907570      -1.00006432       1.14837658       2.57100868
O        6.29502880       6.65830428       6.37154306      -1.45775655      -0.78988105       1.44245131       0.62409769      -0.47267045      -0.64732165      -1.33375394
O       14.53987866      14.47347585      12.02952300       0.65523749      -0.77596188       0.64965129      -2.21100066      -0.70808097      -2.13860434      -1.22075903
O       14.39588258      11.85856019      11.76878550       1.67500438       0.80950985       0.07461479      -0.42970900      -1.00544923      -0.79592696      -1.31141078
O        8.97295560       8.81389540       6.22034063      -1.01332110       1.17530282      -0.57872013       0.31286337      -0.32626781       0.35130708      -1.29043698
O        6.75621368       6.83776031       8.85765672       0.57915195       0.79502261      -0.15971360      -0.29413872      -0.40926641      -1.45460517      -1.27450824
O        6.50518984       9.37946976       9.50373858       0.85539108       0.64184291       0.13617622      -0.78080020      -0.49208442      -0.49856888      -1.25583172
O        9.28557853       6.68941880       9.46542242      -0.25138886      -0.30920486      -0.81841434       1.04459866      -1.42259930      -0.35781503      -1.25624514
O       11.24302401       8.90488499       9.44562148      -0.60514109      -2.31966159      -0.00827036       1.23669347      -0.78847341       0.70693996      -1.22540045
Zr      10.46572265       4.90101342       5.12492370       2.15679582      -0.87801903       1.33422248       0.15199224       0.79596524      -1.18127440       2.54007626
Zr      12.87880390       7.65645140       5.39490170       0.23272417      -0.32996384       0.32134021       1.31800270       1.75871038       0.77586986       2.47262573
Zr      12.94755783       4.95020789       7.74559777      -1.84170852       3.14532800       2.80344893       0.39137810      -0.17817392      -0.94486289       2.50983047